DGEBA & MXDA fragment created by SIF.

19 atoms
18 bonds
31 angles
31 dihedrals
3 impropers

12 atom types
11 bond types
23 angle types
31 dihedral types
1 improper types

-41.082336 41.082336 xlo xhi
-35.578348 35.578348 ylo yhi
0.0 100.0 zlo zhi

Masses

1 12.011
2 1.008
3 12.011
4 1.008
5 15.999
6 1.008
7 15.999
8 14.007
9 14.007
10 14.007
11 1.008
12 1.008

Atoms

1 1 7 -0.2962 -4.505 -0.479 0.864
2 1 1 0.0071 -4.64 -1.311 -0.29
3 1 1 -0.0499 -5.853 -2.228 -0.118
4 1 1 -0.0787 -6.244 -3.122 -1.297
5 1 7 -0.3343 -5.627 -3.639 -0.116
6 1 2 0.11 -4.778 -0.688 -1.173
7 1 2 0.11 -3.741 -1.916 -0.408
8 1 2 0.1635 -6.653 -1.841 0.513
9 1 2 0.1418 -7.303 -3.328 -1.448
10 1 2 0.1418 -5.639 -3.062 -2.202
11 1 8 -0.90755 21.0 1.0 20.0
12 1 1 0.12655 19.542 1.0 20.0
13 1 3 -0.1007 18.984 1.0 21.4
14 1 3 -0.1155 18.209 -0.074 21.86
15 1 3 -0.1015 19.231 2.079 22.264
16 1 11 0.33185 21.33 0.87 19.046
17 1 11 0.33185 21.323 0.191 20.529
18 1 2 0.08545 19.185 0.123 19.447
19 1 2 0.08545 19.173 1.885 19.468

Bonds

1 4 1 2
2 3 2 3
3 6 2 6
4 6 2 7
5 4 3 5
6 3 3 4
7 6 3 8
8 4 4 5
9 6 4 9
10 6 4 10
11 5 11 12
12 9 11 16
13 9 11 17
14 7 12 13
15 6 12 18
16 6 12 19
17 10 13 14
18 10 13 15

Angles

1 3 2 3 4
2 4 2 3 5
3 4 1 2 3
4 4 3 4 5
5 4 4 3 5
6 6 6 2 7
7 6 9 4 10
8 6 18 12 19
9 8 1 2 6
10 8 1 2 7
11 8 5 3 8
12 8 5 4 9
13 8 5 4 10
14 9 11 12 18
15 9 11 12 19
16 10 2 3 8
17 10 3 2 6
18 10 3 2 7
19 10 3 4 9
20 10 3 4 10
21 10 4 3 8
22 11 13 12 18
23 11 13 12 19
24 14 11 12 13
25 15 3 5 4
26 18 12 11 16
27 18 12 11 17
28 19 16 11 17
29 20 14 13 15
30 21 12 13 14
31 21 12 13 15

Dihedrals

1 7 2 3 4 9
2 7 2 3 4 10
3 7 4 3 2 6
4 7 4 3 2 7
5 8 1 2 3 5
6 9 1 2 3 8
7 9 5 3 2 6
8 9 5 3 2 7
9 9 5 3 4 9
10 9 5 3 4 10
11 9 5 4 3 8
12 11 6 2 3 8
13 11 7 2 3 8
14 11 8 3 4 9
15 11 8 3 4 10
16 13 2 3 5 4
17 14 4 5 3 8
18 14 3 5 4 9
19 14 3 5 4 10
20 19 16 11 12 18
21 19 17 11 12 18
22 19 16 11 12 19
23 19 17 11 12 19
24 20 11 12 13 14
25 20 11 12 13 15
26 22 14 13 12 18
27 22 15 13 12 18
28 22 14 13 12 19
29 22 15 13 12 19
30 31 2 3 4 5
31 31 1 2 3 4

Impropers

1 1 12 13 14 15
2 1 12 13 15 14
3 1 14 12 13 15

