DGEBA-MXDA Dimer fragment created by SIF.

19 atoms
19 bonds
31 angles
37 dihedrals
3 impropers

12 atom types
12 bond types
23 angle types
31 dihedral types
1 improper types

-41.082336 41.082336 xlo xhi
-35.578348 35.578348 ylo yhi
0.0 100.0 zlo zhi

Masses

1 12.011
2 1.008
3 12.011
4 1.008
5 15.999
6 1.008
7 15.999
8 14.007
9 14.007
10 14.007
11 1.008
12 1.008

Atoms

1 1 7 -0.31679 38.174 5.891 17.237
2 1 1 -0.03489 38.145 5.82 15.799
3 1 1 0.17162 38.073 7.221 15.18
4 1 5 -0.67799 36.9 7.899 15.639
5 1 1 0.01131 39.32 8.07 15.482
6 1 9 -0.82629 40.53 7.415 14.987
7 1 1 0.09251 41.744 8.134 15.362
8 1 3 -0.10499 42.952 7.403 14.822
9 1 3 -0.1155 43.794 8.009 13.882
10 1 3 -0.1015 43.243 6.098 15.261
11 1 2 0.11252 37.245 5.267 15.506
12 1 2 0.11251 39.041 5.312 15.423
13 1 2 0.13101 37.971 7.106 14.094
14 1 6 0.42541 36.828 7.698 16.592
15 1 2 0.09801 39.383 8.25 16.562
16 1 2 0.09801 39.2 9.053 15.008
17 1 12 0.39102 40.501 7.333 13.971
18 1 2 0.09251 41.839 8.203 16.453
19 1 2 0.09251 41.711 9.156 14.965

Bonds

1 4 1 2
2 3 2 3
3 6 2 11
4 6 2 12
5 2 3 4
6 3 3 5
7 6 3 13
8 1 4 14
9 5 5 6
10 6 5 15
11 6 5 16
12 5 6 7
13 9 6 17
14 7 7 8
15 6 7 18
16 6 7 19
17 10 8 9
18 10 8 10
19 12 4 6

Angles

1 1 3 4 14
2 2 2 3 4
3 2 4 3 5
4 3 2 3 5
5 4 1 2 3
6 5 3 5 6
7 6 11 2 12
8 6 15 5 16
9 6 18 7 19
10 7 4 3 13
11 8 1 2 11
12 8 1 2 12
13 9 6 5 15
14 9 6 5 16
15 9 6 7 18
16 9 6 7 19
17 10 2 3 13
18 10 3 2 11
19 10 3 2 12
20 10 3 5 15
21 10 3 5 16
22 10 5 3 13
23 11 8 7 18
24 11 8 7 19
25 14 6 7 8
26 17 5 6 7
27 18 5 6 17
28 18 7 6 17
29 20 9 8 10
30 21 7 8 9
31 21 7 8 10

Dihedrals

1 1 2 3 4 14
2 1 5 3 4 14
3 2 13 3 4 14
4 3 1 2 3 4
5 4 4 3 5 6
6 5 4 3 2 11
7 5 4 3 2 12
8 5 4 3 5 15
9 5 4 3 5 16
10 6 2 3 5 6
11 7 2 3 5 15
12 7 2 3 5 16
13 7 5 3 2 11
14 7 5 3 2 12
15 9 1 2 3 13
16 10 6 5 3 13
17 11 11 2 3 13
18 11 12 2 3 13
19 11 13 3 5 15
20 11 13 3 5 16
21 16 3 5 6 7
22 17 3 5 6 17
23 18 7 6 5 15
24 18 7 6 5 16
25 18 5 6 7 18
26 18 5 6 7 19
27 19 15 5 6 17
28 19 16 5 6 17
29 19 17 6 7 18
30 19 17 6 7 19
31 20 6 7 8 9
32 20 6 7 8 10
33 22 9 8 7 18
34 22 10 8 7 18
35 22 9 8 7 19
36 22 10 8 7 19
37 31 1 2 3 5

Impropers

1 1 7 8 9 10
2 1 7 8 10 9
3 1 9 7 8 10

