LAMMPS Description

     262  atoms
     274  bonds
     484  angles
     662  dihedrals
     198  impropers

     12  atom types
     11  bond types
     23  angle types
     31  dihedral types
     1  improper types

  -41.082336 41.082336 xlo xhi
  -35.578348 35.578348 ylo yhi
  0.00 100.00 zlo zhi

Masses

12 1.008000  # type740
9 14.007000  # type731
3 12.011000  # type90
1 12.011000  # type80
4 1.008000  # type91
2 1.008000  # type85
11 1.008000  # type739
6 1.008000  # type97
10 14.007000  # type732
8 14.007000  # type730
5 15.999000  # type96
7 15.999000  # type122

Atoms  # full

1 1 1 -0.2304 -0.232 3.661 -1.236
2 1 1 0.0462 0.002 2.786 -0.003
3 1 1 -0.2304 0.229 3.677 1.22
4 1 3 -0.1046 -1.204 1.912 0.229
5 1 3 -0.0944 -1.928 2.032 1.401
6 1 3 -0.1974 -3.034 1.233 1.616
7 1 3 0.1226 -3.418 0.309 0.655
8 1 7 -0.2962 -4.505 -0.479 0.864
9 1 1 0.0071 -4.64 -1.311 -0.29
10 1 1 -0.0499 -5.853 -2.228 -0.118
11 1 1 -0.0787 -6.244 -3.122 -1.297
12 1 7 -0.3343 -5.627 -3.639 -0.116
13 1 3 -0.1974 -2.69 0.191 -0.521
14 1 3 -0.0944 -1.588 0.997 -0.733
15 1 3 -0.1046 1.215 1.919 -0.225
16 1 3 -0.0944 1.985 2.088 -1.36
17 1 3 -0.1974 3.097 1.294 -1.566
18 1 3 0.1226 3.441 0.328 -0.632
19 1 7 -0.2962 4.534 -0.454 -0.832
20 1 1 0.0071 4.621 -1.337 0.288
21 1 1 -0.0499 5.838 -2.25 0.124
22 1 1 -0.0787 6.179 -3.196 1.277
23 1 7 -0.3343 5.609 -3.659 0.051
24 1 3 -0.1974 2.666 0.161 0.507
25 1 3 -0.0944 1.558 0.96 0.71
26 1 2 0.0882 0.641 4.293 -1.403
27 1 2 0.0882 -0.393 3.026 -2.107
28 1 2 0.0882 -1.109 4.288 -1.075
29 1 2 0.0882 -0.648 4.304 1.38
30 1 2 0.0882 0.395 3.053 2.098
31 1 2 0.0882 1.101 4.309 1.052
32 1 4 0.1462 -1.628 2.751 2.149
33 1 4 0.1504 -3.598 1.326 2.532
34 1 2 0.1100 -4.778 -0.688 -1.173
35 1 2 0.1100 -3.741 -1.916 -0.408
36 1 2 0.1635 -6.653 -1.841 0.513
37 1 2 0.1418 -7.303 -3.328 -1.448
38 1 2 0.1418 -5.639 -3.062 -2.202
39 1 4 0.1504 -2.987 -0.527 -1.27
40 1 4 0.1462 -1.022 0.906 -1.648
41 1 4 0.1462 1.717 2.84 -2.087
42 1 4 0.1504 3.698 1.426 -2.454
43 1 2 0.1100 4.724 -0.755 1.203
44 1 2 0.1100 3.717 -1.944 0.343
45 1 2 0.1635 6.663 -1.838 -0.457
46 1 2 0.1418 7.232 -3.413 1.461
47 1 2 0.1418 5.539 -3.174 2.159
48 1 4 0.1504 2.931 -0.591 1.235
49 1 4 0.1462 0.955 0.831 1.597
50 2 8 -0.90755 21.0 1.0 20.0
51 2 1 0.12655 19.542 1.0 20.0
52 2 3 -0.1007 18.984 1.0 21.4
53 2 3 -0.1155 18.209 -0.074 21.86
54 2 3 -0.1472 17.693 -0.07 23.155
55 2 3 -0.1155 17.946 1.007 24.003999999999998
56 2 3 -0.1007 18.717 2.093 23.569
57 2 1 0.12655 18.985 3.254 24.490000000000002
58 2 8 -0.90755 17.752 3.96 24.823999999999998
59 2 3 -0.1015 19.231 2.079 22.264
60 2 11 0.33185 21.33 0.87 19.046
61 2 11 0.33185 21.323 0.191 20.529
62 2 2 0.08545 19.185 0.123 19.447
63 2 2 0.08545 19.173000000000002 1.885 19.468
64 2 4 0.1423 18.002 -0.921 21.21
65 2 4 0.1401 17.093 -0.905 23.504
66 2 4 0.1423 17.538 1.003 25.012999999999998
67 2 2 0.08545 19.687 3.957 24.028
68 2 2 0.08545 19.458 2.884 25.407
69 2 11 0.33185 17.325 4.29 23.959
70 2 11 0.33185 17.979 4.788 25.369
71 2 4 0.1492 19.834 2.912 21.905
72 3 1 -0.23235 41.0 1.0 20.0
73 3 1 0.0586 39.449 1.0 20.0
74 3 1 -0.23235 39.024 1.0 21.495
75 3 3 -0.1034 39.008 2.296 19.279
76 3 3 -0.0953 38.785 2.292 17.895
77 3 3 -0.1989 38.491 3.464 17.197
78 3 3 0.1384 38.407 4.688 17.854
79 3 7 -0.3173 38.174 5.891 17.237000000000002
80 3 1 -0.0354 38.145 5.82 15.799
81 3 1 0.1711 38.073 7.221 15.18
82 3 5 -0.6785 36.9 7.899 15.639
83 3 1 0.0108 39.32 8.07 15.482
84 3 9 -0.8268 40.53 7.415 14.987
85 3 1 0.092 41.744 8.134 15.362
86 3 3 -0.1055 42.952 7.403 14.822
87 3 3 -0.1145 43.794 8.009 13.882
88 3 3 -0.1476 44.905 7.326 13.389
89 3 3 -0.1145 45.185 6.032 13.831
90 3 3 -0.1 44.357 5.405 14.771
91 3 1 0.1272 44.663 4.006 15.244
92 3 8 -0.9095 44.6 3.045 14.148
93 3 3 -0.10185 43.243 6.098 15.261
94 3 3 -0.1987 38.57 4.713 19.239
95 3 3 -0.0952 38.914 3.54 19.935
96 3 3 -0.10185 38.894 -0.287 19.326999999999998
97 3 3 -0.0952 37.634 -0.797 19.687
98 3 3 -0.1987 37.116 -1.952 19.097
99 3 3 0.1295 37.807 -2.594 18.074
100 3 7 -0.3033 37.367 -3.696 17.396
101 3 1 0.0096 35.987 -4.017 17.586
102 3 1 -0.0498 35.577 -4.979 16.525
103 3 1 -0.0695 36.009 -6.417 16.566
104 3 7 -0.3372 34.69 -6.017 16.964
105 3 3 -0.1985 39.049 -2.097 17.685
106 3 3 -0.0951 39.61 -0.994 18.34
107 3 2 0.0868 41.396 1.833 20.592
108 3 2 0.0868 41.416 1.115 18.992
109 3 2 0.0868 41.397 0.072 20.427
110 3 2 0.0872 39.575 1.745 22.081
111 3 2 0.0872 39.219 0.028 21.962
112 3 2 0.0872 37.959 1.232 21.62
113 3 4 0.1441 38.836 1.375 17.316
114 3 4 0.1481 38.336 3.363 16.13
115 3 2 0.112 37.245 5.267 15.506
116 3 2 0.112 39.041 5.312 15.423
117 3 2 0.1305 37.971000000000004 7.106 14.094000000000001
118 3 6 0.4249 36.828 7.698 16.592
119 3 2 0.0975 39.383 8.25 16.562
120 3 2 0.0975 39.2 9.053 15.008
121 3 12 0.3905 40.501 7.333 13.971
122 3 2 0.092 41.839 8.203 16.453
123 3 2 0.092 41.711 9.156 14.965
124 3 4 0.1434 43.589 9.016 13.527000000000001
125 3 4 0.1405 45.555 7.8 12.658999999999999
126 3 4 0.1434 46.054 5.508 13.439
127 3 2 0.0857 43.957 3.703 16.025
128 3 2 0.0857 45.662 3.993 15.690999999999999
129 3 11 0.3325 43.656 3.054 13.765
130 3 11 0.3325 44.755 2.109 14.517
131 3 4 0.1497 42.585 5.63 15.991
132 3 4 0.1481 38.434 5.639 19.786
133 3 4 0.1442 39.106 3.627 21.001
134 3 4 0.1442 37.025 -0.305 20.439
135 3 4 0.1501 36.164 -2.318 19.468
136 3 2 0.1086 35.363 -3.122 17.481
137 3 2 0.1086 35.847 -4.452 18.584
138 3 2 0.1595 35.39 -4.508 15.571
139 3 2 0.1427 36.702 -6.726 17.338
140 3 2 0.1427 36.112 -6.939 15.623000000000001
141 3 4 0.1501 39.586 -2.569 16.865000000000002
142 3 4 0.1443 40.603 -0.677 18.03
143 4 1 -0.2306 1.0 1.0 50.0
144 4 1 0.0565 -0.55 1.0 50.0
145 4 1 -0.2333 -1.011 1.0 51.487
146 4 3 -0.0931 -1.071 2.32 49.381
147 4 3 -0.1017 -1.93 2.361 48.275
148 4 3 -0.1885 -2.377 3.575 47.75
149 4 3 0.1177 -2.017 4.779 48.352
150 4 7 -0.3312 -2.403 6.013 47.911
151 4 1 -0.0433 -3.694 6.025 47.283
152 4 1 0.1348 -4.023 7.474 46.955
153 4 5 -0.6876 -3.049 7.954 46.013
154 4 1 0.0127 -5.443 7.659 46.362
155 4 10 -0.5717 -6.639 7.448 47.212
156 4 1 0.0571 -7.039 6.053 47.472
157 4 3 -0.0965 -7.104 5.07 46.318
158 4 3 -0.1218 -6.626 3.757 46.498
159 4 3 -0.144 -6.798 2.79 45.51
160 4 3 -0.1218 -7.451 3.117 44.323
161 4 3 -0.0951 -7.938 4.414 44.116
162 4 1 0.1248 -8.73 4.734 42.877
163 4 8 -0.9073 -7.942 4.552 41.664
164 4 3 -0.1164 -7.786 5.374 45.132
165 4 1 -0.0205 -6.497 8.234 48.462
166 4 1 0.1665 -7.557 8.144 49.586
167 4 5 -0.6725 -7.67 6.797 50.071
168 4 1 -0.0326 -7.093 9.038 50.754
169 4 7 -0.2951 -8.015 8.904 51.838
170 4 3 0.111 -7.765 9.738 52.89
171 4 3 -0.1828 -8.889 10.271 53.506
172 4 3 -0.1018 -8.75 11.208 54.528999999999996
173 4 3 -0.0941 -7.479 11.632 54.958
174 4 1 0.054 -7.285 12.79 55.961
175 4 1 -0.2325 -8.629 13.468 56.354
176 4 1 -0.2295 -6.709 12.2 57.269999999999996
177 4 3 -0.1044 -6.408 13.916 55.35
178 4 3 -0.0955 -6.813 14.538 54.153
179 4 3 -0.1958 -6.146 15.66 53.65
180 4 3 0.1285 -5.055 16.188999 54.332
181 4 7 -0.3076 -4.393 17.341998999999998 54.005
182 4 1 0.0129 -5.085 18.228001000000003 53.12
183 4 1 -0.05 -4.505 19.598 53.258
184 4 1 -0.0679 -3.121 19.927999 52.77
185 4 7 -0.3393 -4.29 20.282 52.015
186 4 3 -0.1958 -4.569 15.513 55.45
187 4 3 -0.0955 -5.25 14.408 55.973
188 4 3 -0.1018 -6.358 10.995 54.393
189 4 3 -0.1828 -6.497 10.07 53.361
190 4 3 -0.1885 -1.167 4.767 49.448
191 4 3 -0.1017 -0.678 3.558 49.94
192 4 3 -0.1009 -0.999 -0.296 49.273
193 4 3 -0.0965 -1.792 -1.255 49.916
194 4 3 -0.1965 -2.153 -2.446 49.286
195 4 3 0.1271 -1.773 -2.689 47.966
196 4 7 -0.3041 -2.136 -3.79 47.235
197 4 1 0.0092 -3.227 -4.541 47.775999999999996
198 4 1 -0.05 -3.775 -5.42 46.705
199 4 1 -0.0696 -3.018 -6.624 46.223
200 4 7 -0.3373 -4.124 -6.743 47.132
201 4 3 -0.1965 -0.962 -1.763 47.315
202 4 3 -0.0965 -0.581 -0.583 47.957
203 4 2 0.0875 1.415 1.825 50.589
204 4 2 0.0875 1.409 1.099 48.988
205 4 2 0.0875 1.391 0.069 50.428
206 4 2 0.0871 -0.627 1.856 52.05
207 4 2 0.0871 -0.661 0.108 52.018
208 4 2 0.0871 -2.106 1.044 51.56
209 4 4 0.1465 -2.277 1.454 47.788
210 4 4 0.1515 -3.005 3.54 46.866
211 4 2 0.111 -4.413 5.595 47.98
212 4 2 0.111 -3.661 5.46 46.346000000000004
213 4 2 0.0941 -3.874 8.102 47.84
214 4 6 0.43 -2.182 7.685 46.377
215 4 2 0.126 -5.519 7.094 45.426
216 4 2 0.126 -5.495 8.704 46.02
217 4 2 0.1056 -8.065 6.061 47.856
218 4 2 0.1056 -6.413 5.623 48.258
219 4 4 0.1445 -6.15 3.467 47.434
220 4 4 0.1415 -6.462 1.769 45.678
221 4 4 0.1445 -7.585 2.359 43.554
222 4 2 0.0866 -9.102 5.766 42.913
223 4 2 0.0866 -9.61 4.079 42.843
224 4 11 0.3326 -7.124 5.156 41.718
225 4 11 0.3326 -8.485 4.871 40.865
226 4 4 0.15 -8.236 6.359 45.028
227 4 2 0.0883 -6.403 9.291 48.176
228 4 2 0.0883 -5.561 7.938 48.946
229 4 2 0.1604 -8.546 8.453 49.227
230 4 6 0.4068 -6.842 6.57 50.524
231 4 2 0.0942 -7.027 10.085 50.429
232 4 2 0.0942 -6.106 8.689 51.078
233 4 4 0.1507 -9.88 9.987 53.159
234 4 4 0.1453 -9.663 11.592 54.974000000000004
235 4 2 0.0875 -9.296 12.77 56.872
236 4 2 0.0875 -9.171 13.85 55.479
237 4 2 0.0875 -8.464 14.319 57.025
238 4 2 0.0879 -7.366 11.422 57.677
239 4 2 0.0879 -6.608 12.972 58.044
240 4 2 0.0879 -5.721 11.747 57.124
241 4 4 0.1453 -7.689 14.176 53.617
242 4 4 0.1499 -6.509 16.094 52.723
243 4 2 0.1086 -6.149 18.297001 53.38
244 4 2 0.1086 -4.982 17.858 52.093
245 4 2 0.1585 -4.913 20.157 54.089
246 4 2 0.1428 -2.499 19.122999 52.4
247 4 2 0.1428 -2.585 20.731001000000003 53.261
248 4 4 0.1499 -3.673 15.874 55.949
249 4 4 0.1453 -4.874 13.977 56.896
250 4 4 0.1453 -5.355 11.25 54.730000000000004
251 4 4 0.1507 -5.601 9.625 52.943
252 4 4 0.1515 -0.879 5.699 49.928
253 4 4 0.1465 0.019 3.596 50.774
254 4 4 0.1457 -2.16 -1.124 50.924
255 4 4 0.1512 -2.734 -3.165 49.853
256 4 2 0.1086 -4.036 -3.875 48.101
257 4 2 0.1086 -2.874 -5.135 48.628
258 4 2 0.1597 -4.436 -4.903 46.025
259 4 2 0.1431 -2.021 -6.794 46.61
260 4 2 0.1431 -3.174 -6.941 45.2
261 4 4 0.1512 -0.623 -1.957 46.3
262 4 4 0.1457 0.05 0.118 47.413

Bonds

1 3 1 2
2 6 1 26
3 6 1 27
4 6 1 28
5 3 2 3
6 7 2 4
7 7 2 15
8 6 3 29
9 6 3 30
10 6 3 31
11 10 4 14
12 10 4 5
13 10 5 6
14 11 5 32
15 10 6 7
16 11 6 33
17 8 7 8
18 10 7 13
19 4 8 9
20 3 9 10
21 6 9 34
22 6 9 35
23 4 10 12
24 3 10 11
25 6 10 36
26 4 11 12
27 6 11 37
28 6 11 38
29 10 13 14
30 11 13 39
31 11 14 40
32 10 15 25
33 10 15 16
34 10 16 17
35 11 16 41
36 10 17 18
37 11 17 42
38 8 18 19
39 10 18 24
40 4 19 20
41 3 20 21
42 6 20 43
43 6 20 44
44 4 21 23
45 3 21 22
46 6 21 45
47 4 22 23
48 6 22 46
49 6 22 47
50 10 24 25
51 11 24 48
52 11 25 49
53 5 50 51
54 9 50 60
55 9 50 61
56 7 51 52
57 6 51 62
58 6 51 63
59 10 52 53
60 10 52 59
61 10 53 54
62 11 53 64
63 10 54 55
64 11 54 65
65 10 55 56
66 11 55 66
67 7 56 57
68 10 56 59
69 5 57 58
70 6 57 67
71 6 57 68
72 9 58 69
73 9 58 70
74 11 59 71
75 3 72 73
76 6 72 107
77 6 72 108
78 6 72 109
79 3 73 74
80 7 73 75
81 7 73 96
82 6 74 110
83 6 74 111
84 6 74 112
85 10 75 76
86 10 75 95
87 10 76 77
88 11 76 113
89 10 77 78
90 11 77 114
91 8 78 79
92 10 78 94
93 4 79 80
94 3 80 81
95 6 80 115
96 6 80 116
97 2 81 82
98 3 81 83
99 6 81 117
100 1 82 118
101 5 83 84
102 6 83 119
103 6 83 120
104 5 84 85
105 9 84 121
106 7 85 86
107 6 85 122
108 6 85 123
109 10 86 87
110 10 86 93
111 10 87 88
112 11 87 124
113 10 88 89
114 11 88 125
115 10 89 90
116 11 89 126
117 7 90 91
118 10 90 93
119 5 91 92
120 6 91 127
121 6 91 128
122 9 92 129
123 9 92 130
124 11 93 131
125 11 94 132
126 10 94 95
127 11 95 133
128 10 96 97
129 10 96 106
130 10 97 98
131 11 97 134
132 10 98 99
133 11 98 135
134 8 99 100
135 10 99 105
136 4 100 101
137 3 101 102
138 6 101 136
139 6 101 137
140 3 102 103
141 4 102 104
142 6 102 138
143 6 103 139
144 6 103 140
145 4 103 104
146 11 105 141
147 10 105 106
148 11 106 142
149 3 143 144
150 6 143 203
151 6 143 204
152 6 143 205
153 3 144 145
154 7 144 146
155 7 144 192
156 6 145 206
157 6 145 207
158 6 145 208
159 10 146 147
160 10 146 191
161 10 147 148
162 11 147 209
163 10 148 149
164 11 148 210
165 8 149 150
166 10 149 190
167 4 150 151
168 3 151 152
169 6 151 211
170 6 151 212
171 2 152 153
172 3 152 154
173 6 152 213
174 1 153 214
175 5 154 155
176 6 154 215
177 6 154 216
178 5 155 156
179 5 155 165
180 7 156 157
181 6 156 217
182 6 156 218
183 10 157 158
184 10 157 164
185 10 158 159
186 11 158 219
187 10 159 160
188 11 159 220
189 10 160 161
190 11 160 221
191 7 161 162
192 10 161 164
193 5 162 163
194 6 162 222
195 6 162 223
196 9 163 224
197 9 163 225
198 11 164 226
199 3 165 166
200 6 165 227
201 6 165 228
202 2 166 167
203 3 166 168
204 6 166 229
205 1 167 230
206 4 168 169
207 6 168 231
208 6 168 232
209 8 169 170
210 10 170 171
211 10 170 189
212 10 171 172
213 11 171 233
214 10 172 173
215 11 172 234
216 7 173 174
217 10 173 188
218 3 174 175
219 3 174 176
220 7 174 177
221 6 175 235
222 6 175 236
223 6 175 237
224 6 176 238
225 6 176 239
226 6 176 240
227 10 177 178
228 10 177 187
229 10 178 179
230 11 178 241
231 10 179 180
232 11 179 242
233 8 180 181
234 10 180 186
235 4 181 182
236 3 182 183
237 6 182 243
238 6 182 244
239 3 183 184
240 4 183 185
241 6 183 245
242 6 184 246
243 6 184 247
244 4 184 185
245 11 186 248
246 10 186 187
247 11 187 249
248 11 188 250
249 10 188 189
250 11 189 251
251 11 190 252
252 10 190 191
253 11 191 253
254 10 192 193
255 10 192 202
256 10 193 194
257 11 193 254
258 10 194 195
259 11 194 255
260 8 195 196
261 10 195 201
262 4 196 197
263 3 197 198
264 6 197 256
265 6 197 257
266 3 198 199
267 4 198 200
268 6 198 258
269 6 199 259
270 6 199 260
271 4 199 200
272 11 201 261
273 10 201 202
274 11 202 262

Angles

1 1 81 82 118
2 1 152 153 214
3 1 166 167 230
4 2 80 81 82
5 2 82 81 83
6 2 151 152 153
7 2 153 152 154
8 2 165 166 167
9 2 167 166 168
10 3 1 2 3
11 3 9 10 11
12 3 20 21 22
13 3 72 73 74
14 3 80 81 83
15 3 101 102 103
16 3 143 144 145
17 3 151 152 154
18 3 165 166 168
19 3 175 174 176
20 3 182 183 184
21 3 197 198 199
22 4 9 10 12
23 4 8 9 10
24 4 10 11 12
25 4 11 10 12
26 4 20 21 23
27 4 19 20 21
28 4 21 22 23
29 4 22 21 23
30 4 79 80 81
31 4 101 102 104
32 4 100 101 102
33 4 102 103 104
34 4 103 102 104
35 4 150 151 152
36 4 166 168 169
37 4 182 183 185
38 4 181 182 183
39 4 183 184 185
40 4 184 183 185
41 4 197 198 200
42 4 196 197 198
43 4 198 199 200
44 4 199 198 200
45 5 81 83 84
46 5 152 154 155
47 5 155 165 166
48 6 26 1 27
49 6 26 1 28
50 6 27 1 28
51 6 29 3 30
52 6 29 3 31
53 6 30 3 31
54 6 34 9 35
55 6 37 11 38
56 6 43 20 44
57 6 46 22 47
58 6 62 51 63
59 6 67 57 68
60 6 107 72 108
61 6 107 72 109
62 6 108 72 109
63 6 110 74 111
64 6 110 74 112
65 6 111 74 112
66 6 115 80 116
67 6 119 83 120
68 6 122 85 123
69 6 127 91 128
70 6 136 101 137
71 6 139 103 140
72 6 203 143 204
73 6 203 143 205
74 6 204 143 205
75 6 206 145 207
76 6 206 145 208
77 6 207 145 208
78 6 211 151 212
79 6 215 154 216
80 6 217 156 218
81 6 222 162 223
82 6 227 165 228
83 6 231 168 232
84 6 235 175 236
85 6 235 175 237
86 6 236 175 237
87 6 238 176 239
88 6 238 176 240
89 6 239 176 240
90 6 243 182 244
91 6 246 184 247
92 6 256 197 257
93 6 259 199 260
94 7 82 81 117
95 7 153 152 213
96 7 167 166 229
97 8 8 9 34
98 8 8 9 35
99 8 12 10 36
100 8 12 11 37
101 8 12 11 38
102 8 19 20 43
103 8 19 20 44
104 8 23 21 45
105 8 23 22 46
106 8 23 22 47
107 8 79 80 115
108 8 79 80 116
109 8 100 101 136
110 8 100 101 137
111 8 104 102 138
112 8 104 103 139
113 8 104 103 140
114 8 150 151 211
115 8 150 151 212
116 8 169 168 231
117 8 169 168 232
118 8 181 182 243
119 8 181 182 244
120 8 185 183 245
121 8 185 184 246
122 8 185 184 247
123 8 196 197 256
124 8 196 197 257
125 8 200 198 258
126 8 200 199 259
127 8 200 199 260
128 9 50 51 62
129 9 50 51 63
130 9 58 57 67
131 9 58 57 68
132 9 92 91 127
133 9 92 91 128
134 9 163 162 222
135 9 163 162 223
136 9 84 83 119
137 9 84 83 120
138 9 84 85 122
139 9 84 85 123
140 9 155 154 215
141 9 155 154 216
142 9 155 156 217
143 9 155 156 218
144 9 155 165 227
145 9 155 165 228
146 10 2 1 26
147 10 2 1 27
148 10 2 1 28
149 10 2 3 29
150 10 2 3 30
151 10 2 3 31
152 10 9 10 36
153 10 10 9 34
154 10 10 9 35
155 10 10 11 37
156 10 10 11 38
157 10 11 10 36
158 10 20 21 45
159 10 21 20 43
160 10 21 20 44
161 10 21 22 46
162 10 21 22 47
163 10 22 21 45
164 10 73 72 107
165 10 73 72 108
166 10 73 72 109
167 10 73 74 110
168 10 73 74 111
169 10 73 74 112
170 10 80 81 117
171 10 81 80 115
172 10 81 80 116
173 10 81 83 119
174 10 81 83 120
175 10 83 81 117
176 10 101 102 138
177 10 102 101 136
178 10 102 101 137
179 10 102 103 139
180 10 102 103 140
181 10 103 102 138
182 10 144 143 203
183 10 144 143 204
184 10 144 143 205
185 10 144 145 206
186 10 144 145 207
187 10 144 145 208
188 10 151 152 213
189 10 152 151 211
190 10 152 151 212
191 10 152 154 215
192 10 152 154 216
193 10 154 152 213
194 10 165 166 229
195 10 166 165 227
196 10 166 165 228
197 10 166 168 231
198 10 166 168 232
199 10 168 166 229
200 10 174 175 235
201 10 174 175 236
202 10 174 175 237
203 10 174 176 238
204 10 174 176 239
205 10 174 176 240
206 10 182 183 245
207 10 183 182 243
208 10 183 182 244
209 10 183 184 246
210 10 183 184 247
211 10 184 183 245
212 10 197 198 258
213 10 198 197 256
214 10 198 197 257
215 10 198 199 259
216 10 198 199 260
217 10 199 198 258
218 11 52 51 62
219 11 52 51 63
220 11 56 57 67
221 11 56 57 68
222 11 86 85 122
223 11 86 85 123
224 11 90 91 127
225 11 90 91 128
226 11 157 156 217
227 11 157 156 218
228 11 161 162 222
229 11 161 162 223
230 12 4 2 15
231 12 75 73 96
232 12 146 144 192
233 12 173 174 177
234 13 1 2 4
235 13 1 2 15
236 13 3 2 4
237 13 3 2 15
238 13 72 73 75
239 13 72 73 96
240 13 74 73 75
241 13 74 73 96
242 13 143 144 146
243 13 143 144 192
244 13 145 144 146
245 13 145 144 192
246 13 173 174 175
247 13 175 174 177
248 13 173 174 176
249 13 176 174 177
250 14 50 51 52
251 14 56 57 58
252 14 90 91 92
253 14 161 162 163
254 14 84 85 86
255 14 155 156 157
256 15 10 12 11
257 15 21 23 22
258 15 102 104 103
259 15 183 185 184
260 15 198 200 199
261 16 7 8 9
262 16 18 19 20
263 16 78 79 80
264 16 99 100 101
265 16 149 150 151
266 16 168 169 170
267 16 180 181 182
268 16 195 196 197
269 17 83 84 85
270 17 154 155 156
271 17 154 155 165
272 17 156 155 165
273 18 51 50 60
274 18 51 50 61
275 18 57 58 69
276 18 57 58 70
277 18 91 92 129
278 18 91 92 130
279 18 162 163 224
280 18 162 163 225
281 18 83 84 121
282 18 85 84 121
283 19 60 50 61
284 19 69 58 70
285 19 129 92 130
286 19 224 163 225
287 20 4 14 13
288 20 4 5 6
289 20 5 4 14
290 20 5 6 7
291 20 6 7 13
292 20 7 13 14
293 20 15 25 24
294 20 15 16 17
295 20 16 15 25
296 20 16 17 18
297 20 17 18 24
298 20 18 24 25
299 20 52 53 54
300 20 52 59 56
301 20 53 52 59
302 20 53 54 55
303 20 54 55 56
304 20 55 56 59
305 20 75 76 77
306 20 75 95 94
307 20 76 75 95
308 20 76 77 78
309 20 77 78 94
310 20 78 94 95
311 20 86 87 88
312 20 86 93 90
313 20 87 86 93
314 20 87 88 89
315 20 88 89 90
316 20 89 90 93
317 20 96 97 98
318 20 96 106 105
319 20 97 96 106
320 20 97 98 99
321 20 98 99 105
322 20 99 105 106
323 20 146 147 148
324 20 146 191 190
325 20 147 146 191
326 20 147 148 149
327 20 148 149 190
328 20 149 190 191
329 20 157 158 159
330 20 157 164 161
331 20 158 157 164
332 20 158 159 160
333 20 159 160 161
334 20 160 161 164
335 20 170 171 172
336 20 170 189 188
337 20 171 170 189
338 20 171 172 173
339 20 172 173 188
340 20 173 188 189
341 20 177 178 179
342 20 177 187 186
343 20 178 177 187
344 20 178 179 180
345 20 179 180 186
346 20 180 186 187
347 20 192 193 194
348 20 192 202 201
349 20 193 192 202
350 20 193 194 195
351 20 194 195 201
352 20 195 201 202
353 21 2 4 14
354 21 2 4 5
355 21 2 15 25
356 21 2 15 16
357 21 51 52 53
358 21 51 52 59
359 21 55 56 57
360 21 57 56 59
361 21 73 75 76
362 21 73 75 95
363 21 73 96 97
364 21 73 96 106
365 21 85 86 87
366 21 85 86 93
367 21 89 90 91
368 21 91 90 93
369 21 144 146 147
370 21 144 146 191
371 21 144 192 193
372 21 144 192 202
373 21 156 157 158
374 21 156 157 164
375 21 160 161 162
376 21 162 161 164
377 21 172 173 174
378 21 174 173 188
379 21 174 177 178
380 21 174 177 187
381 22 6 7 8
382 22 8 7 13
383 22 17 18 19
384 22 19 18 24
385 22 77 78 79
386 22 79 78 94
387 22 98 99 100
388 22 100 99 105
389 22 148 149 150
390 22 150 149 190
391 22 169 170 171
392 22 169 170 189
393 22 179 180 181
394 22 181 180 186
395 22 194 195 196
396 22 196 195 201
397 23 4 14 40
398 23 4 5 32
399 23 5 6 33
400 23 6 5 32
401 23 7 6 33
402 23 7 13 39
403 23 13 14 40
404 23 14 13 39
405 23 15 25 49
406 23 15 16 41
407 23 16 17 42
408 23 17 16 41
409 23 18 17 42
410 23 18 24 48
411 23 24 25 49
412 23 25 24 48
413 23 52 53 64
414 23 52 59 71
415 23 53 54 65
416 23 54 53 64
417 23 54 55 66
418 23 55 54 65
419 23 56 55 66
420 23 56 59 71
421 23 75 76 113
422 23 75 95 133
423 23 76 77 114
424 23 77 76 113
425 23 78 77 114
426 23 78 94 132
427 23 86 87 124
428 23 86 93 131
429 23 87 88 125
430 23 88 87 124
431 23 88 89 126
432 23 89 88 125
433 23 90 89 126
434 23 90 93 131
435 23 94 95 133
436 23 95 94 132
437 23 96 97 134
438 23 96 106 142
439 23 97 98 135
440 23 98 97 134
441 23 99 98 135
442 23 99 105 141
443 23 105 106 142
444 23 106 105 141
445 23 146 147 209
446 23 146 191 253
447 23 147 148 210
448 23 148 147 209
449 23 149 148 210
450 23 149 190 252
451 23 157 158 219
452 23 157 164 226
453 23 158 159 220
454 23 159 158 219
455 23 159 160 221
456 23 160 159 220
457 23 161 160 221
458 23 161 164 226
459 23 170 171 233
460 23 170 189 251
461 23 171 172 234
462 23 172 171 233
463 23 173 172 234
464 23 173 188 250
465 23 177 178 241
466 23 177 187 249
467 23 178 179 242
468 23 179 178 241
469 23 180 179 242
470 23 180 186 248
471 23 186 187 249
472 23 187 186 248
473 23 188 189 251
474 23 189 188 250
475 23 190 191 253
476 23 191 190 252
477 23 192 193 254
478 23 192 202 262
479 23 193 194 255
480 23 194 193 254
481 23 195 194 255
482 23 195 201 261
483 23 201 202 262
484 23 202 201 261

Dihedrals

1 1 80 81 82 118
2 1 83 81 82 118
3 1 151 152 153 214
4 1 154 152 153 214
5 1 165 166 167 230
6 1 168 166 167 230
7 2 117 81 82 118
8 2 213 152 153 214
9 2 229 166 167 230
10 3 79 80 81 82
11 3 150 151 152 153
12 3 167 166 168 169
13 4 82 81 83 84
14 4 153 152 154 155
15 4 155 165 166 167
16 5 82 81 80 115
17 5 82 81 80 116
18 5 82 81 83 119
19 5 82 81 83 120
20 5 153 152 151 211
21 5 153 152 151 212
22 5 153 152 154 215
23 5 153 152 154 216
24 5 167 166 165 227
25 5 167 166 165 228
26 5 167 166 168 231
27 5 167 166 168 232
28 6 80 81 83 84
29 6 151 152 154 155
30 6 155 165 166 168
31 7 1 2 3 29
32 7 1 2 3 30
33 7 1 2 3 31
34 7 3 2 1 26
35 7 3 2 1 27
36 7 3 2 1 28
37 7 9 10 11 37
38 7 9 10 11 38
39 7 11 10 9 34
40 7 11 10 9 35
41 7 20 21 22 46
42 7 20 21 22 47
43 7 22 21 20 43
44 7 22 21 20 44
45 7 72 73 74 110
46 7 72 73 74 111
47 7 72 73 74 112
48 7 74 73 72 107
49 7 74 73 72 108
50 7 74 73 72 109
51 7 80 81 83 119
52 7 80 81 83 120
53 7 83 81 80 115
54 7 83 81 80 116
55 7 101 102 103 139
56 7 101 102 103 140
57 7 103 102 101 136
58 7 103 102 101 137
59 7 143 144 145 206
60 7 143 144 145 207
61 7 143 144 145 208
62 7 145 144 143 203
63 7 145 144 143 204
64 7 145 144 143 205
65 7 151 152 154 215
66 7 151 152 154 216
67 7 154 152 151 211
68 7 154 152 151 212
69 7 165 166 168 231
70 7 165 166 168 232
71 7 168 166 165 227
72 7 168 166 165 228
73 7 175 174 176 238
74 7 175 174 176 239
75 7 175 174 176 240
76 7 176 174 175 235
77 7 176 174 175 236
78 7 176 174 175 237
79 7 182 183 184 246
80 7 182 183 184 247
81 7 184 183 182 243
82 7 184 183 182 244
83 7 197 198 199 259
84 7 197 198 199 260
85 7 199 198 197 256
86 7 199 198 197 257
87 8 8 9 10 12
88 8 19 20 21 23
89 8 100 101 102 104
90 8 181 182 183 185
91 8 196 197 198 200
92 9 8 9 10 36
93 9 12 10 9 34
94 9 12 10 9 35
95 9 12 10 11 37
96 9 12 10 11 38
97 9 12 11 10 36
98 9 19 20 21 45
99 9 23 21 20 43
100 9 23 21 20 44
101 9 23 21 22 46
102 9 23 21 22 47
103 9 23 22 21 45
104 9 79 80 81 117
105 9 100 101 102 138
106 9 104 102 101 136
107 9 104 102 101 137
108 9 104 102 103 139
109 9 104 102 103 140
110 9 104 103 102 138
111 9 150 151 152 213
112 9 169 168 166 229
113 9 181 182 183 245
114 9 185 183 182 243
115 9 185 183 182 244
116 9 185 183 184 246
117 9 185 183 184 247
118 9 185 184 183 245
119 9 196 197 198 258
120 9 200 198 197 256
121 9 200 198 197 257
122 9 200 198 199 259
123 9 200 198 199 260
124 9 200 199 198 258
125 10 84 83 81 117
126 10 155 154 152 213
127 10 155 165 166 229
128 11 34 9 10 36
129 11 35 9 10 36
130 11 36 10 11 37
131 11 36 10 11 38
132 11 43 20 21 45
133 11 44 20 21 45
134 11 45 21 22 46
135 11 45 21 22 47
136 11 115 80 81 117
137 11 116 80 81 117
138 11 117 81 83 119
139 11 117 81 83 120
140 11 136 101 102 138
141 11 137 101 102 138
142 11 138 102 103 139
143 11 138 102 103 140
144 11 211 151 152 213
145 11 212 151 152 213
146 11 213 152 154 215
147 11 213 152 154 216
148 11 227 165 166 229
149 11 228 165 166 229
150 11 229 166 168 231
151 11 229 166 168 232
152 11 243 182 183 245
153 11 244 182 183 245
154 11 245 183 184 246
155 11 245 183 184 247
156 11 256 197 198 258
157 11 257 197 198 258
158 11 258 198 199 259
159 11 258 198 199 260
160 12 4 2 1 26
161 12 15 2 1 26
162 12 4 2 1 27
163 12 15 2 1 27
164 12 4 2 1 28
165 12 15 2 1 28
166 12 4 2 3 29
167 12 15 2 3 29
168 12 4 2 3 30
169 12 15 2 3 30
170 12 4 2 3 31
171 12 15 2 3 31
172 12 75 73 72 107
173 12 96 73 72 107
174 12 75 73 72 108
175 12 96 73 72 108
176 12 75 73 72 109
177 12 96 73 72 109
178 12 75 73 74 110
179 12 96 73 74 110
180 12 75 73 74 111
181 12 96 73 74 111
182 12 75 73 74 112
183 12 96 73 74 112
184 12 146 144 143 203
185 12 192 144 143 203
186 12 146 144 143 204
187 12 192 144 143 204
188 12 146 144 143 205
189 12 192 144 143 205
190 12 146 144 145 206
191 12 192 144 145 206
192 12 146 144 145 207
193 12 192 144 145 207
194 12 146 144 145 208
195 12 192 144 145 208
196 12 173 174 175 235
197 12 177 174 175 235
198 12 173 174 175 236
199 12 177 174 175 236
200 12 173 174 175 237
201 12 177 174 175 237
202 12 173 174 176 238
203 12 177 174 176 238
204 12 173 174 176 239
205 12 177 174 176 239
206 12 173 174 176 240
207 12 177 174 176 240
208 13 9 10 12 11
209 13 20 21 23 22
210 13 101 102 104 103
211 13 182 183 185 184
212 13 197 198 200 199
213 14 11 12 10 36
214 14 10 12 11 37
215 14 10 12 11 38
216 14 22 23 21 45
217 14 21 23 22 46
218 14 21 23 22 47
219 14 103 104 102 138
220 14 102 104 103 139
221 14 102 104 103 140
222 14 184 185 183 245
223 14 183 185 184 246
224 14 183 185 184 247
225 14 199 200 198 258
226 14 198 200 199 259
227 14 198 200 199 260
228 15 7 8 9 34
229 15 7 8 9 35
230 15 18 19 20 43
231 15 18 19 20 44
232 15 78 79 80 115
233 15 78 79 80 116
234 15 99 100 101 136
235 15 99 100 101 137
236 15 149 150 151 211
237 15 149 150 151 212
238 15 170 169 168 231
239 15 170 169 168 232
240 15 180 181 182 243
241 15 180 181 182 244
242 15 195 196 197 256
243 15 195 196 197 257
244 16 81 83 84 85
245 16 152 154 155 156
246 16 152 154 155 165
247 16 154 155 165 166
248 16 156 155 165 166
249 17 81 83 84 121
250 18 85 84 83 119
251 18 85 84 83 120
252 18 83 84 85 122
253 18 83 84 85 123
254 18 156 155 154 215
255 18 165 155 154 215
256 18 156 155 154 216
257 18 165 155 154 216
258 18 154 155 156 217
259 18 165 155 156 217
260 18 154 155 156 218
261 18 165 155 156 218
262 18 154 155 165 227
263 18 156 155 165 227
264 18 154 155 165 228
265 18 156 155 165 228
266 19 60 50 51 62
267 19 61 50 51 62
268 19 60 50 51 63
269 19 61 50 51 63
270 19 67 57 58 69
271 19 67 57 58 70
272 19 68 57 58 69
273 19 68 57 58 70
274 19 127 91 92 129
275 19 127 91 92 130
276 19 128 91 92 129
277 19 128 91 92 130
278 19 222 162 163 224
279 19 222 162 163 225
280 19 223 162 163 224
281 19 223 162 163 225
282 19 119 83 84 121
283 19 120 83 84 121
284 19 121 84 85 122
285 19 121 84 85 123
286 20 4 2 15 25
287 20 4 2 15 16
288 20 14 4 2 15
289 20 5 4 2 15
290 20 75 73 96 97
291 20 75 73 96 106
292 20 76 75 73 96
293 20 95 75 73 96
294 20 146 144 192 193
295 20 146 144 192 202
296 20 173 174 177 178
297 20 173 174 177 187
298 20 172 173 174 177
299 20 177 174 173 188
300 20 147 146 144 192
301 20 191 146 144 192
302 20 50 51 52 53
303 20 50 51 52 59
304 20 55 56 57 58
305 20 58 57 56 59
306 20 89 90 91 92
307 20 92 91 90 93
308 20 160 161 162 163
309 20 163 162 161 164
310 20 84 85 86 87
311 20 84 85 86 93
312 20 155 156 157 158
313 20 155 156 157 164
314 21 1 2 4 14
315 21 1 2 4 5
316 21 1 2 15 25
317 21 1 2 15 16
318 21 3 2 4 14
319 21 3 2 4 5
320 21 3 2 15 25
321 21 3 2 15 16
322 21 72 73 75 76
323 21 72 73 75 95
324 21 72 73 96 97
325 21 72 73 96 106
326 21 74 73 75 76
327 21 74 73 75 95
328 21 74 73 96 97
329 21 74 73 96 106
330 21 143 144 146 147
331 21 143 144 146 191
332 21 143 144 192 193
333 21 143 144 192 202
334 21 145 144 146 147
335 21 145 144 146 191
336 21 145 144 192 193
337 21 145 144 192 202
338 21 172 173 174 175
339 21 175 174 173 188
340 21 175 174 177 178
341 21 175 174 177 187
342 21 172 173 174 176
343 21 176 174 173 188
344 21 176 174 177 178
345 21 176 174 177 187
346 22 53 52 51 62
347 22 59 52 51 62
348 22 53 52 51 63
349 22 59 52 51 63
350 22 55 56 57 67
351 22 59 56 57 67
352 22 55 56 57 68
353 22 59 56 57 68
354 22 87 86 85 122
355 22 93 86 85 122
356 22 87 86 85 123
357 22 93 86 85 123
358 22 89 90 91 127
359 22 93 90 91 127
360 22 89 90 91 128
361 22 93 90 91 128
362 22 158 157 156 217
363 22 164 157 156 217
364 22 158 157 156 218
365 22 164 157 156 218
366 22 160 161 162 222
367 22 164 161 162 222
368 22 160 161 162 223
369 22 164 161 162 223
370 23 6 7 8 9
371 23 9 8 7 13
372 23 17 18 19 20
373 23 20 19 18 24
374 23 77 78 79 80
375 23 80 79 78 94
376 23 98 99 100 101
377 23 101 100 99 105
378 23 148 149 150 151
379 23 151 150 149 190
380 23 168 169 170 171
381 23 168 169 170 189
382 23 179 180 181 182
383 23 182 181 180 186
384 23 194 195 196 197
385 23 197 196 195 201
386 24 5 6 7 8
387 24 8 7 13 14
388 24 16 17 18 19
389 24 19 18 24 25
390 24 76 77 78 79
391 24 79 78 94 95
392 24 97 98 99 100
393 24 100 99 105 106
394 24 147 148 149 150
395 24 150 149 190 191
396 24 169 170 171 172
397 24 169 170 189 188
398 24 178 179 180 181
399 24 181 180 186 187
400 24 193 194 195 196